

308 atoms
192 bonds
96 angles
0 dihedrals

4 atom types
1 bond types
1 angle types
0 dihedral types

0.0     14.5000000000020002  xlo xhi
0.0     14.6999999999999993  ylo yhi
0.0     14.5000000000000302  zlo zhi

Atoms

1	1	1	1	3.759701	5.344133	11.882377
2	1	1	1	12.425350	8.136294	11.202881
3	1	1	1	2.215165	4.875052	7.238609
4	1	1	1	9.839952	9.024877	7.311327
5	1	1	1	6.812438	7.113487	12.492792
6	1	1	1	9.242570	3.067856	6.141210
7	1	1	1	4.444290	11.121074	7.322365
8	1	1	1	7.171323	0.030602	4.525362
9	1	1	1	8.679706	5.976360	12.270367
10	1	1	1	8.108765	1.411612	0.031366
11	1	2	-1	5.866417	3.873147	11.935743
12	1	2	-1	10.927249	9.815859	9.962052
13	1	2	-1	1.037648	2.706521	7.956820
14	1	2	-1	9.441196	9.270254	4.784336
15	1	2	-1	5.868715	9.503905	12.479131
16	1	2	-1	10.121102	2.054563	3.948878
17	1	2	-1	3.484107	10.549236	5.008073
18	1	2	-1	6.087053	2.341981	4.230766
19	1	2	-1	8.706074	5.891675	9.701898
20	1	2	-1	5.539091	1.415779	-0.009313
21	2	3	-0.8476	7.041064	5.933268	5.558614
22	2	4	0.4238	6.678637	6.579959	6.229847
23	2	4	0.4238	6.626290	5.034907	5.703625
24	3	3	-0.8476	9.982392	6.954729	6.615816
25	3	4	0.4238	9.110744	6.477654	6.502927
26	3	4	0.4238	10.288508	6.869686	7.564067
27	4	3	-0.8476	4.045770	0.003861	2.015989
28	4	4	0.4238	3.278240	0.031382	1.375476
29	4	4	0.4238	4.905104	-0.025946	1.505328
30	5	3	-0.8476	9.574959	8.436377	1.935712
31	5	4	0.4238	10.512484	8.149728	2.133186
32	5	4	0.4238	9.009756	7.630095	1.760860
33	6	3	-0.8476	7.607378	5.343935	1.995660
34	6	4	0.4238	7.302373	4.446253	2.313867
35	6	4	0.4238	8.593530	5.430462	2.137558
36	7	3	-0.8476	7.080944	12.134895	8.762591
37	7	4	0.4238	7.811108	12.725951	9.105563
38	7	4	0.4238	6.379864	12.693984	8.319845
39	8	3	-0.8476	3.848421	2.097530	9.071551
40	8	4	0.4238	3.635291	1.124876	8.978624
41	8	4	0.4238	3.052961	2.640280	8.801766
42	9	3	-0.8476	9.394887	11.698586	7.981849
43	9	4	0.4238	10.179491	11.168494	7.660111
44	9	4	0.4238	9.539136	12.666347	7.775089
45	10	3	-0.8476	7.195611	0.945838	8.182541
46	10	4	0.4238	8.192273	0.972153	8.260566
47	10	4	0.4238	6.882953	-0.003155	8.224672
48	11	3	-0.8476	8.543299	9.218363	9.734663
49	11	4	0.4238	7.792127	9.097079	10.383622
50	11	4	0.4238	9.195965	8.467473	9.836199
51	12	3	-0.8476	11.509806	11.805438	9.282096
52	12	4	0.4238	12.489563	11.864608	9.090546
53	12	4	0.4238	11.160804	12.712643	9.517243
54	13	3	-0.8476	3.029043	2.383877	2.137969
55	13	4	0.4238	3.020618	3.353801	1.894466
56	13	4	0.4238	2.095538	2.079988	2.328592
57	14	3	-0.8476	0.383311	1.968979	0.947968
58	14	4	0.4238	0.006827	2.777179	1.400945
59	14	4	0.4238	0.006154	1.898505	0.024440
60	15	3	-0.8476	1.814516	-0.004282	8.491368
61	15	4	0.4238	1.349629	0.768456	8.923655
62	15	4	0.4238	1.805898	0.114672	7.498447
63	16	3	-0.8476	1.706430	9.219926	5.760752
64	16	4	0.4238	1.804822	8.252574	5.526943
65	16	4	0.4238	0.765581	9.399244	6.048445
66	17	3	-0.8476	4.048588	7.493254	3.097198
67	17	4	0.4238	3.628010	6.585985	3.106936
68	17	4	0.4238	4.483055	7.668700	3.980700
69	18	3	-0.8476	11.506289	3.655599	0.231380
70	18	4	0.4238	10.849186	2.904170	0.292099
71	18	4	0.4238	12.435337	3.292545	0.303344
72	19	3	-0.8476	9.989166	4.721229	8.120049
73	19	4	0.4238	10.248326	4.714873	7.154176
74	19	4	0.4238	10.042018	3.791807	8.485424
75	20	3	-0.8476	1.774204	9.670275	3.610614
76	20	4	0.4238	2.513290	9.009719	3.478197
77	20	4	0.4238	0.908322	9.183127	3.724863
78	21	3	-0.8476	11.143485	5.013278	2.147009
79	21	4	0.4238	10.717885	5.893389	2.357688
80	21	4	0.4238	10.467631	4.283282	2.249217
81	22	3	-0.8476	1.318312	4.605865	2.504161
82	22	4	0.4238	2.047432	5.272176	2.347541
83	22	4	0.4238	0.430045	5.055980	2.411987
84	23	3	-0.8476	0.007026	4.615208	8.174224
85	23	4	0.4238	0.655046	4.842339	8.901272
86	23	4	0.4238	0.066504	5.300807	7.448598
87	24	3	-0.8476	7.212895	12.710613	2.751738
88	24	4	0.4238	6.984860	11.923026	2.179181
89	24	4	0.4238	7.088969	12.469830	3.714434
90	25	3	-0.8476	9.167028	2.923267	12.506306
91	25	4	0.4238	9.331740	3.880235	12.267144
92	25	4	0.4238	8.678911	2.472234	11.759025
93	26	3	-0.8476	8.592394	5.029210	4.296960
94	26	4	0.4238	9.474278	5.288501	4.690869
95	26	4	0.4238	8.496303	4.034069	4.321005
96	27	3	-0.8476	3.560378	7.273578	0.002065
97	27	4	0.4238	3.434050	8.259344	0.113525
98	27	4	0.4238	4.074465	6.913323	0.780556
99	28	3	-0.8476	8.954894	5.039485	0.005522
100	28	4	0.4238	8.397365	4.209261	0.007450
101	28	4	0.4238	8.357951	5.841796	-0.003110
102	29	3	-0.8476	0.910624	10.211008	1.672943
103	29	4	0.4238	0.833654	11.206459	1.615769
104	29	4	0.4238	-0.000823	9.802729	1.621066
105	30	3	-0.8476	12.381102	8.452534	9.032290
106	30	4	0.4238	11.761016	8.679376	8.281189
107	30	4	0.4238	12.519145	7.462527	9.063080
108	31	3	-0.8476	7.842216	11.642434	0.104290
109	31	4	0.4238	8.244987	10.934987	0.685160
110	31	4	0.4238	8.358172	12.492772	0.208369
111	32	3	-0.8476	2.594784	2.359688	-0.011051
112	32	4	0.4238	2.281032	1.410176	-0.000903
113	32	4	0.4238	3.594080	2.380860	0.021763
114	33	3	-0.8476	7.921927	2.863142	9.742476
115	33	4	0.4238	8.178604	3.787479	10.025026
116	33	4	0.4238	6.931972	2.818607	9.607857
117	34	3	-0.8476	4.291599	0.539685	6.965095
118	34	4	0.4238	4.477481	1.507975	6.797828
119	34	4	0.4238	4.879702	-0.018545	6.379746
120	35	3	-0.8476	5.725943	6.037586	3.203833
121	35	4	0.4238	5.765805	5.166698	3.693815
122	35	4	0.4238	5.524167	5.868274	2.239085
123	36	3	-0.8476	3.891538	10.191692	11.813544
124	36	4	0.4238	4.294930	11.078404	11.587417
125	36	4	0.4238	3.078707	10.329921	12.379509
126	37	3	-0.8476	12.165362	5.040617	8.185953
127	37	4	0.4238	12.520246	5.277327	9.090466
128	37	4	0.4238	12.490096	4.130539	7.928225
129	38	3	-0.8476	0.156842	10.517986	9.797940
130	38	4	0.4238	0.092888	10.187710	8.856163
131	38	4	0.4238	0.000000	11.505501	9.816180
132	39	3	-0.8476	5.456860	0.751430	10.683600
133	39	4	0.4238	5.683343	1.027525	9.749473
134	39	4	0.4238	4.748853	0.045532	10.660107
135	40	3	-0.8476	1.000697	0.150661	3.588704
136	40	4	0.4238	0.071007	0.005206	3.250125
137	40	4	0.4238	1.653404	-0.002425	2.846642
138	41	3	-0.8476	7.911137	11.451215	10.972337
139	41	4	0.4238	8.603027	12.165447	11.078531
140	41	4	0.4238	7.002877	11.868744	10.943170
141	42	3	-0.8476	1.319242	6.884052	9.449571
142	42	4	0.4238	2.077739	6.290953	9.719815
143	42	4	0.4238	1.601912	7.840582	9.522141
144	43	3	-0.8476	5.846054	9.091764	4.950693
145	43	4	0.4238	6.101378	8.799883	5.872502
146	43	4	0.4238	6.569539	9.668673	4.571400
147	44	3	-0.8476	8.807289	2.856388	2.387435
148	44	4	0.4238	9.234215	2.326864	1.654322
149	44	4	0.4238	7.971912	2.396082	2.688071
150	45	3	-0.8476	0.422061	5.518926	-0.001667
151	45	4	0.4238	1.385291	5.516860	0.267218
152	45	4	0.4238	0.000800	4.650843	0.261184
153	46	3	-0.8476	4.262698	12.695170	9.024580
154	46	4	0.4238	3.500826	12.048772	9.067444
155	46	4	0.4238	4.817664	12.611582	9.852314
156	47	3	-0.8476	3.497742	4.063671	4.319833
157	47	4	0.4238	4.145404	3.313927	4.455971
158	47	4	0.4238	2.616761	3.693618	4.024786
159	48	3	-0.8476	2.681119	2.074735	11.646490
160	48	4	0.4238	2.315540	2.857346	11.142518
161	48	4	0.4238	3.596728	1.858259	11.307497
162	49	3	-0.8476	5.756147	2.902082	2.127285
163	49	4	0.4238	5.158557	3.702618	2.173606
164	49	4	0.4238	5.199530	2.074443	2.054415
165	50	3	-0.8476	6.156188	7.966960	2.264414
166	50	4	0.4238	6.806117	7.561716	1.621385
167	50	4	0.4238	5.469025	8.489101	1.759148
168	51	3	-0.8476	2.924500	10.666856	0.943338
169	51	4	0.4238	3.422655	10.701340	0.076869
170	51	4	0.4238	3.301668	9.938799	1.515873
171	52	3	-0.8476	2.254172	12.697577	3.267233
172	52	4	0.4238	1.772371	11.860253	3.525830
173	52	4	0.4238	3.101188	12.461177	2.791002
174	53	3	-0.8476	10.767150	0.011615	8.818369
175	53	4	0.4238	11.661564	0.044277	9.264544
176	53	4	0.4238	10.164186	0.695048	9.230038
177	54	3	-0.8476	4.348102	4.225635	9.565727
178	54	4	0.4238	3.937644	5.135759	9.623302
179	54	4	0.4238	4.253923	3.761234	10.446397
180	55	3	-0.8476	12.212763	12.591279	2.102964
181	55	4	0.4238	11.229231	12.695865	2.250756
182	55	4	0.4238	12.421390	11.631373	1.915420
183	56	3	-0.8476	10.357275	8.663906	11.739846
184	56	4	0.4238	10.793085	9.136481	12.505913
185	56	4	0.4238	10.397738	7.676175	11.891063
186	57	3	-0.8476	7.568883	8.075406	7.927366
187	57	4	0.4238	7.894706	8.241611	6.996596
188	57	4	0.4238	7.723925	7.117356	8.168655
189	58	3	-0.8476	12.540162	11.885779	6.142354
190	58	4	0.4238	12.253230	11.392763	6.963769
191	58	4	0.4238	12.507134	11.269706	5.355283
192	59	3	-0.8476	3.685146	9.172371	6.666696
193	59	4	0.4238	4.157017	8.807161	7.469239
194	59	4	0.4238	3.923584	8.627036	5.863032
195	60	3	-0.8476	2.484564	2.845837	6.059936
196	60	4	0.4238	1.583308	3.252544	5.910121
197	60	4	0.4238	2.376622	1.900131	6.366706
198	61	3	-0.8476	11.980816	11.161161	11.340055
199	61	4	0.4238	12.501464	10.315433	11.457468
200	61	4	0.4238	12.506939	11.929714	11.704250
201	62	3	-0.8476	0.525114	1.432648	5.285213
202	62	4	0.4238	0.009670	1.591309	6.127389
203	62	4	0.4238	0.051584	1.865537	4.518079
204	63	3	-0.8476	11.937200	0.766835	1.984329
205	63	4	0.4238	12.498270	1.533086	1.670997
206	63	4	0.4238	10.971098	1.021577	1.941073
207	64	3	-0.8476	11.323302	2.284940	10.207521
208	64	4	0.4238	12.040503	1.792036	10.700254
209	64	4	0.4238	11.692367	2.639095	9.348171
210	65	3	-0.8476	5.201307	10.366598	2.833772
211	65	4	0.4238	4.576735	9.731456	3.288327
212	65	4	0.4238	5.391122	11.138767	3.440273
213	66	3	-0.8476	7.964904	11.574385	5.516674
214	66	4	0.4238	8.506853	10.858780	5.957489
215	66	4	0.4238	8.307068	12.471522	5.796293
216	67	3	-0.8476	3.570424	0.880025	3.976828
217	67	4	0.4238	2.710371	1.288315	4.282973
218	67	4	0.4238	4.305802	1.145011	4.600623
219	68	3	-0.8476	12.496500	3.994916	4.409222
220	68	4	0.4238	12.302922	3.020947	4.527662
221	68	4	0.4238	11.644416	4.483665	4.221619
222	69	3	-0.8476	12.160613	6.525931	6.044109
223	69	4	0.4238	12.399203	6.855024	6.957832
224	69	4	0.4238	12.471221	5.581218	5.938486
225	70	3	-0.8476	7.812229	4.940246	7.938803
226	70	4	0.4238	7.954779	3.954908	7.844435
227	70	4	0.4238	6.833932	5.128650	8.025727
228	71	3	-0.8476	3.790212	6.361948	7.277105
229	71	4	0.4238	4.557013	6.760690	6.773977
230	71	4	0.4238	3.731167	6.782214	8.182647
231	72	3	-0.8476	0.441135	11.835703	6.910817
232	72	4	0.4238	0.514551	12.695503	7.416257
233	72	4	0.4238	1.219940	11.249765	7.135000
234	73	3	-0.8476	5.128220	8.909119	9.711423
235	73	4	0.4238	5.723568	8.565747	8.984943
236	73	4	0.4238	5.642914	9.537196	10.295141
237	74	3	-0.8476	10.309561	12.631197	4.944454
238	74	4	0.4238	10.410438	11.886790	5.604605
239	74	4	0.4238	11.167158	12.751619	4.444312
240	75	3	-0.8476	5.537994	10.278427	0.495533
241	75	4	0.4238	6.397571	9.815829	0.278172
242	75	4	0.4238	5.692207	11.265620	0.537792
243	76	3	-0.8476	11.650915	7.429281	3.862822
244	76	4	0.4238	10.906430	6.900391	4.270417
245	76	4	0.4238	12.456756	6.846017	3.760153
246	77	3	-0.8476	11.058009	5.969500	10.684057
247	77	4	0.4238	10.728753	6.629404	10.008605
248	77	4	0.4238	10.708718	5.059838	10.459048
249	78	3	-0.8476	0.852626	7.700751	7.430405
250	78	4	0.4238	1.497518	6.953383	7.270178
251	78	4	0.4238	0.010292	7.529460	6.919279
252	79	3	-0.8476	7.351193	1.965016	6.089587
253	79	4	0.4238	7.068214	2.924068	6.105637
254	79	4	0.4238	6.542388	1.378175	6.129219
255	80	3	-0.8476	10.324836	0.930521	6.762037
256	80	4	0.4238	10.508923	1.736685	7.324468
257	80	4	0.4238	11.188460	0.553435	6.427258
258	81	3	-0.8476	8.282390	7.574867	4.017094
259	81	4	0.4238	7.728793	6.914910	3.509056
260	81	4	0.4238	7.790381	7.859104	4.840048
261	82	3	-0.8476	0.654156	7.085495	12.005533
262	82	4	0.4238	1.118628	6.256541	11.693736
263	82	4	0.4238	0.213820	7.533526	11.227401
264	83	3	-0.8476	8.062353	9.691209	12.481747
265	83	4	0.4238	8.898311	10.239830	12.499225
266	83	4	0.4238	8.300977	8.720037	12.483157
267	84	3	-0.8476	1.360217	7.349048	2.605301
268	84	4	0.4238	1.017918	7.144670	1.688144
269	84	4	0.4238	0.688459	7.054462	3.285065
270	85	3	-0.8476	6.760620	10.200971	7.792355
271	85	4	0.4238	6.556967	10.667028	6.931290
272	85	4	0.4238	7.743724	10.244505	7.970481
273	86	3	-0.8476	5.334835	3.861388	7.038074
274	86	4	0.4238	5.264251	3.257029	7.831727
275	86	4	0.4238	4.418444	4.130401	6.741467
276	87	3	-0.8476	1.911082	6.121406	4.850983
277	87	4	0.4238	1.399129	5.283227	5.039333
278	87	4	0.4238	2.863765	5.999813	5.129781
279	88	3	-0.8476	3.072700	7.419797	11.572500
280	88	4	0.4238	2.592394	8.214051	11.944769
281	88	4	0.4238	3.655535	7.708639	10.812900
282	89	3	-0.8476	12.097273	9.000310	5.499061
283	89	4	0.4238	11.262980	8.501578	5.734303
284	89	4	0.4238	12.547066	9.311150	6.336428
285	90	3	-0.8476	2.658559	10.046167	8.679100
286	90	4	0.4238	2.059756	9.472005	8.120629
287	90	4	0.4238	3.037601	9.502741	9.428188
288	91	3	-0.8476	8.163708	9.691967	3.063475
289	91	4	0.4238	8.205675	10.614758	3.446634
290	91	4	0.4238	7.503708	9.672664	2.312379
291	92	3	-0.8476	11.973877	6.142597	-0.008018
292	92	4	0.4238	11.006416	5.993413	0.196627
293	92	4	0.4238	12.500671	6.126352	0.841889
294	93	3	-0.8476	10.676525	9.981731	0.825544
295	93	4	0.4238	10.286758	10.658220	1.450494
296	93	4	0.4238	9.976101	9.685398	0.176152
297	94	3	-0.8476	6.227362	3.968013	0.280199
298	94	4	0.4238	6.341907	4.961073	0.251426
299	94	4	0.4238	5.302262	3.730499	-0.016272
300	95	3	-0.8476	4.400304	12.791013	5.895608
301	95	4	0.4238	3.446456	12.493053	5.934468
302	95	4	0.4238	4.922522	12.162655	5.318917
303	96	3	-0.8476	6.048986	5.600654	9.997288
304	96	4	0.4238	6.189348	6.510979	9.607772
305	96	4	0.4238	6.796702	5.388503	10.626597
306	97	3	-0.8476	11.346805	10.614052	3.601785
307	97	4	0.4238	10.380285	10.868727	3.634893
308	97	4	0.4238	11.426922	9.621795	3.506259

Bonds

1	1	21	22
2	1	21	23
3	1	24	25
4	1	24	26
5	1	27	28
6	1	27	29
7	1	30	31
8	1	30	32
9	1	33	34
10	1	33	35
11	1	36	37
12	1	36	38
13	1	39	40
14	1	39	41
15	1	42	43
16	1	42	44
17	1	45	46
18	1	45	47
19	1	48	49
20	1	48	50
21	1	51	52
22	1	51	53
23	1	54	55
24	1	54	56
25	1	57	58
26	1	57	59
27	1	60	61
28	1	60	62
29	1	63	64
30	1	63	65
31	1	66	67
32	1	66	68
33	1	69	70
34	1	69	71
35	1	72	73
36	1	72	74
37	1	75	76
38	1	75	77
39	1	78	79
40	1	78	80
41	1	81	82
42	1	81	83
43	1	84	85
44	1	84	86
45	1	87	88
46	1	87	89
47	1	90	91
48	1	90	92
49	1	93	94
50	1	93	95
51	1	96	97
52	1	96	98
53	1	99	100
54	1	99	101
55	1	102	103
56	1	102	104
57	1	105	106
58	1	105	107
59	1	108	109
60	1	108	110
61	1	111	112
62	1	111	113
63	1	114	115
64	1	114	116
65	1	117	118
66	1	117	119
67	1	120	121
68	1	120	122
69	1	123	124
70	1	123	125
71	1	126	127
72	1	126	128
73	1	129	130
74	1	129	131
75	1	132	133
76	1	132	134
77	1	135	136
78	1	135	137
79	1	138	139
80	1	138	140
81	1	141	142
82	1	141	143
83	1	144	145
84	1	144	146
85	1	147	148
86	1	147	149
87	1	150	151
88	1	150	152
89	1	153	154
90	1	153	155
91	1	156	157
92	1	156	158
93	1	159	160
94	1	159	161
95	1	162	163
96	1	162	164
97	1	165	166
98	1	165	167
99	1	168	169
100	1	168	170
101	1	171	172
102	1	171	173
103	1	174	175
104	1	174	176
105	1	177	178
106	1	177	179
107	1	180	181
108	1	180	182
109	1	183	184
110	1	183	185
111	1	186	187
112	1	186	188
113	1	189	190
114	1	189	191
115	1	192	193
116	1	192	194
117	1	195	196
118	1	195	197
119	1	198	199
120	1	198	200
121	1	201	202
122	1	201	203
123	1	204	205
124	1	204	206
125	1	207	208
126	1	207	209
127	1	210	211
128	1	210	212
129	1	213	214
130	1	213	215
131	1	216	217
132	1	216	218
133	1	219	220
134	1	219	221
135	1	222	223
136	1	222	224
137	1	225	226
138	1	225	227
139	1	228	229
140	1	228	230
141	1	231	232
142	1	231	233
143	1	234	235
144	1	234	236
145	1	237	238
146	1	237	239
147	1	240	241
148	1	240	242
149	1	243	244
150	1	243	245
151	1	246	247
152	1	246	248
153	1	249	250
154	1	249	251
155	1	252	253
156	1	252	254
157	1	255	256
158	1	255	257
159	1	258	259
160	1	258	260
161	1	261	262
162	1	261	263
163	1	264	265
164	1	264	266
165	1	267	268
166	1	267	269
167	1	270	271
168	1	270	272
169	1	273	274
170	1	273	275
171	1	276	277
172	1	276	278
173	1	279	280
174	1	279	281
175	1	282	283
176	1	282	284
177	1	285	286
178	1	285	287
179	1	288	289
180	1	288	290
181	1	291	292
182	1	291	293
183	1	294	295
184	1	294	296
185	1	297	298
186	1	297	299
187	1	300	301
188	1	300	302
189	1	303	304
190	1	303	305
191	1	306	307
192	1	306	308

Angles

1	1	22	21	23
2	1	25	24	26
3	1	28	27	29
4	1	31	30	32
5	1	34	33	35
6	1	37	36	38
7	1	40	39	41
8	1	43	42	44
9	1	46	45	47
10	1	49	48	50
11	1	52	51	53
12	1	55	54	56
13	1	58	57	59
14	1	61	60	62
15	1	64	63	65
16	1	67	66	68
17	1	70	69	71
18	1	73	72	74
19	1	76	75	77
20	1	79	78	80
21	1	82	81	83
22	1	85	84	86
23	1	88	87	89
24	1	91	90	92
25	1	94	93	95
26	1	97	96	98
27	1	100	99	101
28	1	103	102	104
29	1	106	105	107
30	1	109	108	110
31	1	112	111	113
32	1	115	114	116
33	1	118	117	119
34	1	121	120	122
35	1	124	123	125
36	1	127	126	128
37	1	130	129	131
38	1	133	132	134
39	1	136	135	137
40	1	139	138	140
41	1	142	141	143
42	1	145	144	146
43	1	148	147	149
44	1	151	150	152
45	1	154	153	155
46	1	157	156	158
47	1	160	159	161
48	1	163	162	164
49	1	166	165	167
50	1	169	168	170
51	1	172	171	173
52	1	175	174	176
53	1	178	177	179
54	1	181	180	182
55	1	184	183	185
56	1	187	186	188
57	1	190	189	191
58	1	193	192	194
59	1	196	195	197
60	1	199	198	200
61	1	202	201	203
62	1	205	204	206
63	1	208	207	209
64	1	211	210	212
65	1	214	213	215
66	1	217	216	218
67	1	220	219	221
68	1	223	222	224
69	1	226	225	227
70	1	229	228	230
71	1	232	231	233
72	1	235	234	236
73	1	238	237	239
74	1	241	240	242
75	1	244	243	245
76	1	247	246	248
77	1	250	249	251
78	1	253	252	254
79	1	256	255	257
80	1	259	258	260
81	1	262	261	263
82	1	265	264	266
83	1	268	267	269
84	1	271	270	272
85	1	274	273	275
86	1	277	276	278
87	1	280	279	281
88	1	283	282	284
89	1	286	285	287
90	1	289	288	290
91	1	292	291	293
92	1	295	294	296
93	1	298	297	299
94	1	301	300	302
95	1	304	303	305
96	1	307	306	308
